SPECGRID
 40 40 20 1 F /
 
COORD
 0.000000 0.000000 0.000000 0.000000 0.000000 16.400000
 8.200000 0.000000 0.000000 8.200000 0.000000 16.400000
 16.400000 0.000000 0.000000 16.400000 0.000000 16.400000
 24.599998 0.000000 0.000000 24.599998 0.000000 16.400000
 32.799999 0.000000 0.000000 32.799999 0.000000 16.400000
 41.000000 0.000000 0.000000 41.000000 0.000000 16.400000
 49.199997 0.000000 0.000000 49.199997 0.000000 16.400000
 57.399998 0.000000 0.000000 57.399998 0.000000 16.400000
 65.599998 0.000000 0.000000 65.599998 0.000000 16.400000
 73.799995 0.000000 0.000000 73.799995 0.000000 16.400000
 82.000000 0.000000 0.000000 82.000000 0.000000 16.400000
 90.199997 0.000000 0.000000 90.199997 0.000000 16.400000
 98.399994 0.000000 0.000000 98.399994 0.000000 16.400000
 106.599998 0.000000 0.000000 106.599998 0.000000 16.400000
 114.799995 0.000000 0.000000 114.799995 0.000000 16.400000
 123.000000 0.000000 0.000000 123.000000 0.000000 16.400000
 131.199997 0.000000 0.000000 131.199997 0.000000 16.400000
 139.399994 0.000000 0.000000 139.399994 0.000000 16.400000
 147.599991 0.000000 0.000000 147.599991 0.000000 16.400000
 155.800003 0.000000 0.000000 155.800003 0.000000 16.400000
 164.000000 0.000000 0.000000 164.000000 0.000000 16.400000
 172.199997 0.000000 0.000000 172.199997 0.000000 16.400000
 180.399994 0.000000 0.000000 180.399994 0.000000 16.400000
 188.599991 0.000000 0.000000 188.599991 0.000000 16.400000
 196.799988 0.000000 0.000000 196.799988 0.000000 16.400000
 205.000000 0.000000 0.000000 205.000000 0.000000 16.400000
 213.199997 0.000000 0.000000 213.199997 0.000000 16.400000
 221.399994 0.000000 0.000000 221.399994 0.000000 16.400000
 229.599991 0.000000 0.000000 229.599991 0.000000 16.400000
 237.799988 0.000000 0.000000 237.799988 0.000000 16.400000
 246.000000 0.000000 0.000000 246.000000 0.000000 16.400000
 254.199997 0.000000 0.000000 254.199997 0.000000 16.400000
 262.399994 0.000000 0.000000 262.399994 0.000000 16.400000
 270.600006 0.000000 0.000000 270.600006 0.000000 16.400000
 278.799988 0.000000 0.000000 278.799988 0.000000 16.400000
 287.000000 0.000000 0.000000 287.000000 0.000000 16.400000
 295.199982 0.000000 0.000000 295.199982 0.000000 16.400000
 303.399994 0.000000 0.000000 303.399994 0.000000 16.400000
 311.600006 0.000000 0.000000 311.600006 0.000000 16.400000
 319.799988 0.000000 0.000000 319.799988 0.000000 16.400000
 328.000000 0.000000 0.000000 328.000000 0.000000 16.400000
 0.000000 8.200000 0.000000 0.000000 8.200000 16.400000
 8.200000 8.200000 0.000000 8.200000 8.200000 16.400000
 16.400000 8.200000 0.000000 16.400000 8.200000 16.400000
 24.599998 8.200000 0.000000 24.599998 8.200000 16.400000
 32.799999 8.200000 0.000000 32.799999 8.200000 16.400000
 41.000000 8.200000 0.000000 41.000000 8.200000 16.400000
 49.199997 8.200000 0.000000 49.199997 8.200000 16.400000
 57.399998 8.200000 0.000000 57.399998 8.200000 16.400000
 65.599998 8.200000 0.000000 65.599998 8.200000 16.400000
 73.799995 8.200000 0.000000 73.799995 8.200000 16.400000
 82.000000 8.200000 0.000000 82.000000 8.200000 16.400000
 90.199997 8.200000 0.000000 90.199997 8.200000 16.400000
 98.399994 8.200000 0.000000 98.399994 8.200000 16.400000
 106.599998 8.200000 0.000000 106.599998 8.200000 16.400000
 114.799995 8.200000 0.000000 114.799995 8.200000 16.400000
 123.000000 8.200000 0.000000 123.000000 8.200000 16.400000
 131.199997 8.200000 0.000000 131.199997 8.200000 16.400000
 139.399994 8.200000 0.000000 139.399994 8.200000 16.400000
 147.599991 8.200000 0.000000 147.599991 8.200000 16.400000
 155.800003 8.200000 0.000000 155.800003 8.200000 16.400000
 164.000000 8.200000 0.000000 164.000000 8.200000 16.400000
 172.199997 8.200000 0.000000 172.199997 8.200000 16.400000
 180.399994 8.200000 0.000000 180.399994 8.200000 16.400000
 188.599991 8.200000 0.000000 188.599991 8.200000 16.400000
 196.799988 8.200000 0.000000 196.799988 8.200000 16.400000
 205.000000 8.200000 0.000000 205.000000 8.200000 16.400000
 213.199997 8.200000 0.000000 213.199997 8.200000 16.400000
 221.399994 8.200000 0.000000 221.399994 8.200000 16.400000
 229.599991 8.200000 0.000000 229.599991 8.200000 16.400000
 237.799988 8.200000 0.000000 237.799988 8.200000 16.400000
 246.000000 8.200000 0.000000 246.000000 8.200000 16.400000
 254.199997 8.200000 0.000000 254.199997 8.200000 16.400000
 262.399994 8.200000 0.000000 262.399994 8.200000 16.400000
 270.600006 8.200000 0.000000 270.600006 8.200000 16.400000
 278.799988 8.200000 0.000000 278.799988 8.200000 16.400000
 287.000000 8.200000 0.000000 287.000000 8.200000 16.400000
 295.199982 8.200000 0.000000 295.199982 8.200000 16.400000
 303.399994 8.200000 0.000000 303.399994 8.200000 16.400000
 311.600006 8.200000 0.000000 311.600006 8.200000 16.400000
 319.799988 8.200000 0.000000 319.799988 8.200000 16.400000
 328.000000 8.200000 0.000000 328.000000 8.200000 16.400000
 0.000000 16.400000 0.000000 0.000000 16.400000 16.400000
 8.200000 16.400000 0.000000 8.200000 16.400000 16.400000
 16.400000 16.400000 0.000000 16.400000 16.400000 16.400000
 24.599998 16.400000 0.000000 24.599998 16.400000 16.400000
 32.799999 16.400000 0.000000 32.799999 16.400000 16.400000
 41.000000 16.400000 0.000000 41.000000 16.400000 16.400000
 49.199997 16.400000 0.000000 49.199997 16.400000 16.400000
 57.399998 16.400000 0.000000 57.399998 16.400000 16.400000
 65.599998 16.400000 0.000000 65.599998 16.400000 16.400000
 73.799995 16.400000 0.000000 73.799995 16.400000 16.400000
 82.000000 16.400000 0.000000 82.000000 16.400000 16.400000
 90.199997 16.400000 0.000000 90.199997 16.400000 16.400000
 98.399994 16.400000 0.000000 98.399994 16.400000 16.400000
 106.599998 16.400000 0.000000 106.599998 16.400000 16.400000
 114.799995 16.400000 0.000000 114.799995 16.400000 16.400000
 123.000000 16.400000 0.000000 123.000000 16.400000 16.400000
 131.199997 16.400000 0.000000 131.199997 16.400000 16.400000
 139.399994 16.400000 0.000000 139.399994 16.400000 16.400000
 147.599991 16.400000 0.000000 147.599991 16.400000 16.400000
 155.800003 16.400000 0.000000 155.800003 16.400000 16.400000
 164.000000 16.400000 0.000000 164.000000 16.400000 16.400000
 172.199997 16.400000 0.000000 172.199997 16.400000 16.400000
 180.399994 16.400000 0.000000 180.399994 16.400000 16.400000
 188.599991 16.400000 0.000000 188.599991 16.400000 16.400000
 196.799988 16.400000 0.000000 196.799988 16.400000 16.400000
 205.000000 16.400000 0.000000 205.000000 16.400000 16.400000
 213.199997 16.400000 0.000000 213.199997 16.400000 16.400000
 221.399994 16.400000 0.000000 221.399994 16.400000 16.400000
 229.599991 16.400000 0.000000 229.599991 16.400000 16.400000
 237.799988 16.400000 0.000000 237.799988 16.400000 16.400000
 246.000000 16.400000 0.000000 246.000000 16.400000 16.400000
 254.199997 16.400000 0.000000 254.199997 16.400000 16.400000
 262.399994 16.400000 0.000000 262.399994 16.400000 16.400000
 270.600006 16.400000 0.000000 270.600006 16.400000 16.400000
 278.799988 16.400000 0.000000 278.799988 16.400000 16.400000
 287.000000 16.400000 0.000000 287.000000 16.400000 16.400000
 295.199982 16.400000 0.000000 295.199982 16.400000 16.400000
 303.399994 16.400000 0.000000 303.399994 16.400000 16.400000
 311.600006 16.400000 0.000000 311.600006 16.400000 16.400000
 319.799988 16.400000 0.000000 319.799988 16.400000 16.400000
 328.000000 16.400000 0.000000 328.000000 16.400000 16.400000
 0.000000 24.599998 0.000000 0.000000 24.599998 16.400000
 8.200000 24.599998 0.000000 8.200000 24.599998 16.400000
 16.400000 24.599998 0.000000 16.400000 24.599998 16.400000
 24.599998 24.599998 0.000000 24.599998 24.599998 16.400000
 32.799999 24.599998 0.000000 32.799999 24.599998 16.400000
 41.000000 24.599998 0.000000 41.000000 24.599998 16.400000
 49.199997 24.599998 0.000000 49.199997 24.599998 16.400000
 57.399998 24.599998 0.000000 57.399998 24.599998 16.400000
 65.599998 24.599998 0.000000 65.599998 24.599998 16.400000
 73.799995 24.599998 0.000000 73.799995 24.599998 16.400000
 82.000000 24.599998 0.000000 82.000000 24.599998 16.400000
 90.199997 24.599998 0.000000 90.199997 24.599998 16.400000
 98.399994 24.599998 0.000000 98.399994 24.599998 16.400000
 106.599998 24.599998 0.000000 106.599998 24.599998 16.400000
 114.799995 24.599998 0.000000 114.799995 24.599998 16.400000
 123.000000 24.599998 0.000000 123.000000 24.599998 16.400000
 131.199997 24.599998 0.000000 131.199997 24.599998 16.400000
 139.399994 24.599998 0.000000 139.399994 24.599998 16.400000
 147.599991 24.599998 0.000000 147.599991 24.599998 16.400000
 155.800003 24.599998 0.000000 155.800003 24.599998 16.400000
 164.000000 24.599998 0.000000 164.000000 24.599998 16.400000
 172.199997 24.599998 0.000000 172.199997 24.599998 16.400000
 180.399994 24.599998 0.000000 180.399994 24.599998 16.400000
 188.599991 24.599998 0.000000 188.599991 24.599998 16.400000
 196.799988 24.599998 0.000000 196.799988 24.599998 16.400000
 205.000000 24.599998 0.000000 205.000000 24.599998 16.400000
 213.199997 24.599998 0.000000 213.199997 24.599998 16.400000
 221.399994 24.599998 0.000000 221.399994 24.599998 16.400000
 229.599991 24.599998 0.000000 229.599991 24.599998 16.400000
 237.799988 24.599998 0.000000 237.799988 24.599998 16.400000
 246.000000 24.599998 0.000000 246.000000 24.599998 16.400000
 254.199997 24.599998 0.000000 254.199997 24.599998 16.400000
 262.399994 24.599998 0.000000 262.399994 24.599998 16.400000
 270.600006 24.599998 0.000000 270.600006 24.599998 16.400000
 278.799988 24.599998 0.000000 278.799988 24.599998 16.400000
 287.000000 24.599998 0.000000 287.000000 24.599998 16.400000
 295.199982 24.599998 0.000000 295.199982 24.599998 16.400000
 303.399994 24.599998 0.000000 303.399994 24.599998 16.400000
 311.600006 24.599998 0.000000 311.600006 24.599998 16.400000
 319.799988 24.599998 0.000000 319.799988 24.599998 16.400000
 328.000000 24.599998 0.000000 328.000000 24.599998 16.400000
 0.000000 32.799999 0.000000 0.000000 32.799999 16.400000
 8.200000 32.799999 0.000000 8.200000 32.799999 16.400000
 16.400000 32.799999 0.000000 16.400000 32.799999 16.400000
 24.599998 32.799999 0.000000 24.599998 32.799999 16.400000
 32.799999 32.799999 0.000000 32.799999 32.799999 16.400000
 41.000000 32.799999 0.000000 41.000000 32.799999 16.400000
 49.199997 32.799999 0.000000 49.199997 32.799999 16.400000
 57.399998 32.799999 0.000000 57.399998 32.799999 16.400000
 65.599998 32.799999 0.000000 65.599998 32.799999 16.400000
 73.799995 32.799999 0.000000 73.799995 32.799999 16.400000
 82.000000 32.799999 0.000000 82.000000 32.799999 16.400000
 90.199997 32.799999 0.000000 90.199997 32.799999 16.400000
 98.399994 32.799999 0.000000 98.399994 32.799999 16.400000
 106.599998 32.799999 0.000000 106.599998 32.799999 16.400000
 114.799995 32.799999 0.000000 114.799995 32.799999 16.400000
 123.000000 32.799999 0.000000 123.000000 32.799999 16.400000
 131.199997 32.799999 0.000000 131.199997 32.799999 16.400000
 139.399994 32.799999 0.000000 139.399994 32.799999 16.400000
 147.599991 32.799999 0.000000 147.599991 32.799999 16.400000
 155.800003 32.799999 0.000000 155.800003 32.799999 16.400000
 164.000000 32.799999 0.000000 164.000000 32.799999 16.400000
 172.199997 32.799999 0.000000 172.199997 32.799999 16.400000
 180.399994 32.799999 0.000000 180.399994 32.799999 16.400000
 188.599991 32.799999 0.000000 188.599991 32.799999 16.400000
 196.799988 32.799999 0.000000 196.799988 32.799999 16.400000
 205.000000 32.799999 0.000000 205.000000 32.799999 16.400000
 213.199997 32.799999 0.000000 213.199997 32.799999 16.400000
 221.399994 32.799999 0.000000 221.399994 32.799999 16.400000
 229.599991 32.799999 0.000000 229.599991 32.799999 16.400000
 237.799988 32.799999 0.000000 237.799988 32.799999 16.400000
 246.000000 32.799999 0.000000 246.000000 32.799999 16.400000
 254.199997 32.799999 0.000000 254.199997 32.799999 16.400000
 262.399994 32.799999 0.000000 262.399994 32.799999 16.400000
 270.600006 32.799999 0.000000 270.600006 32.799999 16.400000
 278.799988 32.799999 0.000000 278.799988 32.799999 16.400000
 287.000000 32.799999 0.000000 287.000000 32.799999 16.400000
 295.199982 32.799999 0.000000 295.199982 32.799999 16.400000
 303.399994 32.799999 0.000000 303.399994 32.799999 16.400000
 311.600006 32.799999 0.000000 311.600006 32.799999 16.400000
 319.799988 32.799999 0.000000 319.799988 32.799999 16.400000
 328.000000 32.799999 0.000000 328.000000 32.799999 16.400000
 0.000000 41.000000 0.000000 0.000000 41.000000 16.400000
 8.200000 41.000000 0.000000 8.200000 41.000000 16.400000
 16.400000 41.000000 0.000000 16.400000 41.000000 16.400000
 24.599998 41.000000 0.000000 24.599998 41.000000 16.400000
 32.799999 41.000000 0.000000 32.799999 41.000000 16.400000
 41.000000 41.000000 0.000000 41.000000 41.000000 16.400000
 49.199997 41.000000 0.000000 49.199997 41.000000 16.400000
 57.399998 41.000000 0.000000 57.399998 41.000000 16.400000
 65.599998 41.000000 0.000000 65.599998 41.000000 16.400000
 73.799995 41.000000 0.000000 73.799995 41.000000 16.400000
 82.000000 41.000000 0.000000 82.000000 41.000000 16.400000
 90.199997 41.000000 0.000000 90.199997 41.000000 16.400000
 98.399994 41.000000 0.000000 98.399994 41.000000 16.400000
 106.599998 41.000000 0.000000 106.599998 41.000000 16.400000
 114.799995 41.000000 0.000000 114.799995 41.000000 16.400000
 123.000000 41.000000 0.000000 123.000000 41.000000 16.400000
 131.199997 41.000000 0.000000 131.199997 41.000000 16.400000
 139.399994 41.000000 0.000000 139.399994 41.000000 16.400000
 147.599991 41.000000 0.000000 147.599991 41.000000 16.400000
 155.800003 41.000000 0.000000 155.800003 41.000000 16.400000
 164.000000 41.000000 0.000000 164.000000 41.000000 16.400000
 172.199997 41.000000 0.000000 172.199997 41.000000 16.400000
 180.399994 41.000000 0.000000 180.399994 41.000000 16.400000
 188.599991 41.000000 0.000000 188.599991 41.000000 16.400000
 196.799988 41.000000 0.000000 196.799988 41.000000 16.400000
 205.000000 41.000000 0.000000 205.000000 41.000000 16.400000
 213.199997 41.000000 0.000000 213.199997 41.000000 16.400000
 221.399994 41.000000 0.000000 221.399994 41.000000 16.400000
 229.599991 41.000000 0.000000 229.599991 41.000000 16.400000
 237.799988 41.000000 0.000000 237.799988 41.000000 16.400000
 246.000000 41.000000 0.000000 246.000000 41.000000 16.400000
 254.199997 41.000000 0.000000 254.199997 41.000000 16.400000
 262.399994 41.000000 0.000000 262.399994 41.000000 16.400000
 270.600006 41.000000 0.000000 270.600006 41.000000 16.400000
 278.799988 41.000000 0.000000 278.799988 41.000000 16.400000
 287.000000 41.000000 0.000000 287.000000 41.000000 16.400000
 295.199982 41.000000 0.000000 295.199982 41.000000 16.400000
 303.399994 41.000000 0.000000 303.399994 41.000000 16.400000
 311.600006 41.000000 0.000000 311.600006 41.000000 16.400000
 319.799988 41.000000 0.000000 319.799988 41.000000 16.400000
 328.000000 41.000000 0.000000 328.000000 41.000000 16.400000
 0.000000 49.199997 0.000000 0.000000 49.199997 16.400000
 8.200000 49.199997 0.000000 8.200000 49.199997 16.400000
 16.400000 49.199997 0.000000 16.400000 49.199997 16.400000
 24.599998 49.199997 0.000000 24.599998 49.199997 16.400000
 32.799999 49.199997 0.000000 32.799999 49.199997 16.400000
 41.000000 49.199997 0.000000 41.000000 49.199997 16.400000
 49.199997 49.199997 0.000000 49.199997 49.199997 16.400000
 57.399998 49.199997 0.000000 57.399998 49.199997 16.400000
 65.599998 49.199997 0.000000 65.599998 49.199997 16.400000
 73.799995 49.199997 0.000000 73.799995 49.199997 16.400000
 82.000000 49.199997 0.000000 82.000000 49.199997 16.400000
 90.199997 49.199997 0.000000 90.199997 49.199997 16.400000
 98.399994 49.199997 0.000000 98.399994 49.199997 16.400000
 106.599998 49.199997 0.000000 106.599998 49.199997 16.400000
 114.799995 49.199997 0.000000 114.799995 49.199997 16.400000
 123.000000 49.199997 0.000000 123.000000 49.199997 16.400000
 131.199997 49.199997 0.000000 131.199997 49.199997 16.400000
 139.399994 49.199997 0.000000 139.399994 49.199997 16.400000
 147.599991 49.199997 0.000000 147.599991 49.199997 16.400000
 155.800003 49.199997 0.000000 155.800003 49.199997 16.400000
 164.000000 49.199997 0.000000 164.000000 49.199997 16.400000
 172.199997 49.199997 0.000000 172.199997 49.199997 16.400000
 180.399994 49.199997 0.000000 180.399994 49.199997 16.400000
 188.599991 49.199997 0.000000 188.599991 49.199997 16.400000
 196.799988 49.199997 0.000000 196.799988 49.199997 16.400000
 205.000000 49.199997 0.000000 205.000000 49.199997 16.400000
 213.199997 49.199997 0.000000 213.199997 49.199997 16.400000
 221.399994 49.199997 0.000000 221.399994 49.199997 16.400000
 229.599991 49.199997 0.000000 229.599991 49.199997 16.400000
 237.799988 49.199997 0.000000 237.799988 49.199997 16.400000
 246.000000 49.199997 0.000000 246.000000 49.199997 16.400000
 254.199997 49.199997 0.000000 254.199997 49.199997 16.400000
 262.399994 49.199997 0.000000 262.399994 49.199997 16.400000
 270.600006 49.199997 0.000000 270.600006 49.199997 16.400000
 278.799988 49.199997 0.000000 278.799988 49.199997 16.400000
 287.000000 49.199997 0.000000 287.000000 49.199997 16.400000
 295.199982 49.199997 0.000000 295.199982 49.199997 16.400000
 303.399994 49.199997 0.000000 303.399994 49.199997 16.400000
 311.600006 49.199997 0.000000 311.600006 49.199997 16.400000
 319.799988 49.199997 0.000000 319.799988 49.199997 16.400000
 328.000000 49.199997 0.000000 328.000000 49.199997 16.400000
 0.000000 57.399998 0.000000 0.000000 57.399998 16.400000
 8.200000 57.399998 0.000000 8.200000 57.399998 16.400000
 16.400000 57.399998 0.000000 16.400000 57.399998 16.400000
 24.599998 57.399998 0.000000 24.599998 57.399998 16.400000
 32.799999 57.399998 0.000000 32.799999 57.399998 16.400000
 41.000000 57.399998 0.000000 41.000000 57.399998 16.400000
 49.199997 57.399998 0.000000 49.199997 57.399998 16.400000
 57.399998 57.399998 0.000000 57.399998 57.399998 16.400000
 65.599998 57.399998 0.000000 65.599998 57.399998 16.400000
 73.799995 57.399998 0.000000 73.799995 57.399998 16.400000
 82.000000 57.399998 0.000000 82.000000 57.399998 16.400000
 90.199997 57.399998 0.000000 90.199997 57.399998 16.400000
 98.399994 57.399998 0.000000 98.399994 57.399998 16.400000
 106.599998 57.399998 0.000000 106.599998 57.399998 16.400000
 114.799995 57.399998 0.000000 114.799995 57.399998 16.400000
 123.000000 57.399998 0.000000 123.000000 57.399998 16.400000
 131.199997 57.399998 0.000000 131.199997 57.399998 16.400000
 139.399994 57.399998 0.000000 139.399994 57.399998 16.400000
 147.599991 57.399998 0.000000 147.599991 57.399998 16.400000
 155.800003 57.399998 0.000000 155.800003 57.399998 16.400000
 164.000000 57.399998 0.000000 164.000000 57.399998 16.400000
 172.199997 57.399998 0.000000 172.199997 57.399998 16.400000
 180.399994 57.399998 0.000000 180.399994 57.399998 16.400000
 188.599991 57.399998 0.000000 188.599991 57.399998 16.400000
 196.799988 57.399998 0.000000 196.799988 57.399998 16.400000
 205.000000 57.399998 0.000000 205.000000 57.399998 16.400000
 213.199997 57.399998 0.000000 213.199997 57.399998 16.400000
 221.399994 57.399998 0.000000 221.399994 57.399998 16.400000
 229.599991 57.399998 0.000000 229.599991 57.399998 16.400000
 237.799988 57.399998 0.000000 237.799988 57.399998 16.400000
 246.000000 57.399998 0.000000 246.000000 57.399998 16.400000
 254.199997 57.399998 0.000000 254.199997 57.399998 16.400000
 262.399994 57.399998 0.000000 262.399994 57.399998 16.400000
 270.600006 57.399998 0.000000 270.600006 57.399998 16.400000
 278.799988 57.399998 0.000000 278.799988 57.399998 16.400000
 287.000000 57.399998 0.000000 287.000000 57.399998 16.400000
 295.199982 57.399998 0.000000 295.199982 57.399998 16.400000
 303.399994 57.399998 0.000000 303.399994 57.399998 16.400000
 311.600006 57.399998 0.000000 311.600006 57.399998 16.400000
 319.799988 57.399998 0.000000 319.799988 57.399998 16.400000
 328.000000 57.399998 0.000000 328.000000 57.399998 16.400000
 0.000000 65.599998 0.000000 0.000000 65.599998 16.400000
 8.200000 65.599998 0.000000 8.200000 65.599998 16.400000
 16.400000 65.599998 0.000000 16.400000 65.599998 16.400000
 24.599998 65.599998 0.000000 24.599998 65.599998 16.400000
 32.799999 65.599998 0.000000 32.799999 65.599998 16.400000
 41.000000 65.599998 0.000000 41.000000 65.599998 16.400000
 49.199997 65.599998 0.000000 49.199997 65.599998 16.400000
 57.399998 65.599998 0.000000 57.399998 65.599998 16.400000
 65.599998 65.599998 0.000000 65.599998 65.599998 16.400000
 73.799995 65.599998 0.000000 73.799995 65.599998 16.400000
 82.000000 65.599998 0.000000 82.000000 65.599998 16.400000
 90.199997 65.599998 0.000000 90.199997 65.599998 16.400000
 98.399994 65.599998 0.000000 98.399994 65.599998 16.400000
 106.599998 65.599998 0.000000 106.599998 65.599998 16.400000
 114.799995 65.599998 0.000000 114.799995 65.599998 16.400000
 123.000000 65.599998 0.000000 123.000000 65.599998 16.400000
 131.199997 65.599998 0.000000 131.199997 65.599998 16.400000
 139.399994 65.599998 0.000000 139.399994 65.599998 16.400000
 147.599991 65.599998 0.000000 147.599991 65.599998 16.400000
 155.800003 65.599998 0.000000 155.800003 65.599998 16.400000
 164.000000 65.599998 0.000000 164.000000 65.599998 16.400000
 172.199997 65.599998 0.000000 172.199997 65.599998 16.400000
 180.399994 65.599998 0.000000 180.399994 65.599998 16.400000
 188.599991 65.599998 0.000000 188.599991 65.599998 16.400000
 196.799988 65.599998 0.000000 196.799988 65.599998 16.400000
 205.000000 65.599998 0.000000 205.000000 65.599998 16.400000
 213.199997 65.599998 0.000000 213.199997 65.599998 16.400000
 221.399994 65.599998 0.000000 221.399994 65.599998 16.400000
 229.599991 65.599998 0.000000 229.599991 65.599998 16.400000
 237.799988 65.599998 0.000000 237.799988 65.599998 16.400000
 246.000000 65.599998 0.000000 246.000000 65.599998 16.400000
 254.199997 65.599998 0.000000 254.199997 65.599998 16.400000
 262.399994 65.599998 0.000000 262.399994 65.599998 16.400000
 270.600006 65.599998 0.000000 270.600006 65.599998 16.400000
 278.799988 65.599998 0.000000 278.799988 65.599998 16.400000
 287.000000 65.599998 0.000000 287.000000 65.599998 16.400000
 295.199982 65.599998 0.000000 295.199982 65.599998 16.400000
 303.399994 65.599998 0.000000 303.399994 65.599998 16.400000
 311.600006 65.599998 0.000000 311.600006 65.599998 16.400000
 319.799988 65.599998 0.000000 319.799988 65.599998 16.400000
 328.000000 65.599998 0.000000 328.000000 65.599998 16.400000
 0.000000 73.799995 0.000000 0.000000 73.799995 16.400000
 8.200000 73.799995 0.000000 8.200000 73.799995 16.400000
 16.400000 73.799995 0.000000 16.400000 73.799995 16.400000
 24.599998 73.799995 0.000000 24.599998 73.799995 16.400000
 32.799999 73.799995 0.000000 32.799999 73.799995 16.400000
 41.000000 73.799995 0.000000 41.000000 73.799995 16.400000
 49.199997 73.799995 0.000000 49.199997 73.799995 16.400000
 57.399998 73.799995 0.000000 57.399998 73.799995 16.400000
 65.599998 73.799995 0.000000 65.599998 73.799995 16.400000
 73.799995 73.799995 0.000000 73.799995 73.799995 16.400000
 82.000000 73.799995 0.000000 82.000000 73.799995 16.400000
 90.199997 73.799995 0.000000 90.199997 73.799995 16.400000
 98.399994 73.799995 0.000000 98.399994 73.799995 16.400000
 106.599998 73.799995 0.000000 106.599998 73.799995 16.400000
 114.799995 73.799995 0.000000 114.799995 73.799995 16.400000
 123.000000 73.799995 0.000000 123.000000 73.799995 16.400000
 131.199997 73.799995 0.000000 131.199997 73.799995 16.400000
 139.399994 73.799995 0.000000 139.399994 73.799995 16.400000
 147.599991 73.799995 0.000000 147.599991 73.799995 16.400000
 155.800003 73.799995 0.000000 155.800003 73.799995 16.400000
 164.000000 73.799995 0.000000 164.000000 73.799995 16.400000
 172.199997 73.799995 0.000000 172.199997 73.799995 16.400000
 180.399994 73.799995 0.000000 180.399994 73.799995 16.400000
 188.599991 73.799995 0.000000 188.599991 73.799995 16.400000
 196.799988 73.799995 0.000000 196.799988 73.799995 16.400000
 205.000000 73.799995 0.000000 205.000000 73.799995 16.400000
 213.199997 73.799995 0.000000 213.199997 73.799995 16.400000
 221.399994 73.799995 0.000000 221.399994 73.799995 16.400000
 229.599991 73.799995 0.000000 229.599991 73.799995 16.400000
 237.799988 73.799995 0.000000 237.799988 73.799995 16.400000
 246.000000 73.799995 0.000000 246.000000 73.799995 16.400000
 254.199997 73.799995 0.000000 254.199997 73.799995 16.400000
 262.399994 73.799995 0.000000 262.399994 73.799995 16.400000
 270.600006 73.799995 0.000000 270.600006 73.799995 16.400000
 278.799988 73.799995 0.000000 278.799988 73.799995 16.400000
 287.000000 73.799995 0.000000 287.000000 73.799995 16.400000
 295.199982 73.799995 0.000000 295.199982 73.799995 16.400000
 303.399994 73.799995 0.000000 303.399994 73.799995 16.400000
 311.600006 73.799995 0.000000 311.600006 73.799995 16.400000
 319.799988 73.799995 0.000000 319.799988 73.799995 16.400000
 328.000000 73.799995 0.000000 328.000000 73.799995 16.400000
 0.000000 82.000000 0.000000 0.000000 82.000000 16.400000
 8.200000 82.000000 0.000000 8.200000 82.000000 16.400000
 16.400000 82.000000 0.000000 16.400000 82.000000 16.400000
 24.599998 82.000000 0.000000 24.599998 82.000000 16.400000
 32.799999 82.000000 0.000000 32.799999 82.000000 16.400000
 41.000000 82.000000 0.000000 41.000000 82.000000 16.400000
 49.199997 82.000000 0.000000 49.199997 82.000000 16.400000
 57.399998 82.000000 0.000000 57.399998 82.000000 16.400000
 65.599998 82.000000 0.000000 65.599998 82.000000 16.400000
 73.799995 82.000000 0.000000 73.799995 82.000000 16.400000
 82.000000 82.000000 0.000000 82.000000 82.000000 16.400000
 90.199997 82.000000 0.000000 90.199997 82.000000 16.400000
 98.399994 82.000000 0.000000 98.399994 82.000000 16.400000
 106.599998 82.000000 0.000000 106.599998 82.000000 16.400000
 114.799995 82.000000 0.000000 114.799995 82.000000 16.400000
 123.000000 82.000000 0.000000 123.000000 82.000000 16.400000
 131.199997 82.000000 0.000000 131.199997 82.000000 16.400000
 139.399994 82.000000 0.000000 139.399994 82.000000 16.400000
 147.599991 82.000000 0.000000 147.599991 82.000000 16.400000
 155.800003 82.000000 0.000000 155.800003 82.000000 16.400000
 164.000000 82.000000 0.000000 164.000000 82.000000 16.400000
 172.199997 82.000000 0.000000 172.199997 82.000000 16.400000
 180.399994 82.000000 0.000000 180.399994 82.000000 16.400000
 188.599991 82.000000 0.000000 188.599991 82.000000 16.400000
 196.799988 82.000000 0.000000 196.799988 82.000000 16.400000
 205.000000 82.000000 0.000000 205.000000 82.000000 16.400000
 213.199997 82.000000 0.000000 213.199997 82.000000 16.400000
 221.399994 82.000000 0.000000 221.399994 82.000000 16.400000
 229.599991 82.000000 0.000000 229.599991 82.000000 16.400000
 237.799988 82.000000 0.000000 237.799988 82.000000 16.400000
 246.000000 82.000000 0.000000 246.000000 82.000000 16.400000
 254.199997 82.000000 0.000000 254.199997 82.000000 16.400000
 262.399994 82.000000 0.000000 262.399994 82.000000 16.400000
 270.600006 82.000000 0.000000 270.600006 82.000000 16.400000
 278.799988 82.000000 0.000000 278.799988 82.000000 16.400000
 287.000000 82.000000 0.000000 287.000000 82.000000 16.400000
 295.199982 82.000000 0.000000 295.199982 82.000000 16.400000
 303.399994 82.000000 0.000000 303.399994 82.000000 16.400000
 311.600006 82.000000 0.000000 311.600006 82.000000 16.400000
 319.799988 82.000000 0.000000 319.799988 82.000000 16.400000
 328.000000 82.000000 0.000000 328.000000 82.000000 16.400000
 0.000000 90.199997 0.000000 0.000000 90.199997 16.400000
 8.200000 90.199997 0.000000 8.200000 90.199997 16.400000
 16.400000 90.199997 0.000000 16.400000 90.199997 16.400000
 24.599998 90.199997 0.000000 24.599998 90.199997 16.400000
 32.799999 90.199997 0.000000 32.799999 90.199997 16.400000
 41.000000 90.199997 0.000000 41.000000 90.199997 16.400000
 49.199997 90.199997 0.000000 49.199997 90.199997 16.400000
 57.399998 90.199997 0.000000 57.399998 90.199997 16.400000
 65.599998 90.199997 0.000000 65.599998 90.199997 16.400000
 73.799995 90.199997 0.000000 73.799995 90.199997 16.400000
 82.000000 90.199997 0.000000 82.000000 90.199997 16.400000
 90.199997 90.199997 0.000000 90.199997 90.199997 16.400000
 98.399994 90.199997 0.000000 98.399994 90.199997 16.400000
 106.599998 90.199997 0.000000 106.599998 90.199997 16.400000
 114.799995 90.199997 0.000000 114.799995 90.199997 16.400000
 123.000000 90.199997 0.000000 123.000000 90.199997 16.400000
 131.199997 90.199997 0.000000 131.199997 90.199997 16.400000
 139.399994 90.199997 0.000000 139.399994 90.199997 16.400000
 147.599991 90.199997 0.000000 147.599991 90.199997 16.400000
 155.800003 90.199997 0.000000 155.800003 90.199997 16.400000
 164.000000 90.199997 0.000000 164.000000 90.199997 16.400000
 172.199997 90.199997 0.000000 172.199997 90.199997 16.400000
 180.399994 90.199997 0.000000 180.399994 90.199997 16.400000
 188.599991 90.199997 0.000000 188.599991 90.199997 16.400000
 196.799988 90.199997 0.000000 196.799988 90.199997 16.400000
 205.000000 90.199997 0.000000 205.000000 90.199997 16.400000
 213.199997 90.199997 0.000000 213.199997 90.199997 16.400000
 221.399994 90.199997 0.000000 221.399994 90.199997 16.400000
 229.599991 90.199997 0.000000 229.599991 90.199997 16.400000
 237.799988 90.199997 0.000000 237.799988 90.199997 16.400000
 246.000000 90.199997 0.000000 246.000000 90.199997 16.400000
 254.199997 90.199997 0.000000 254.199997 90.199997 16.400000
 262.399994 90.199997 0.000000 262.399994 90.199997 16.400000
 270.600006 90.199997 0.000000 270.600006 90.199997 16.400000
 278.799988 90.199997 0.000000 278.799988 90.199997 16.400000
 287.000000 90.199997 0.000000 287.000000 90.199997 16.400000
 295.199982 90.199997 0.000000 295.199982 90.199997 16.400000
 303.399994 90.199997 0.000000 303.399994 90.199997 16.400000
 311.600006 90.199997 0.000000 311.600006 90.199997 16.400000
 319.799988 90.199997 0.000000 319.799988 90.199997 16.400000