GRID

SPECGRID
 3 3 3 1 F /

GRIDUNIT
 MICROMETRES /

COORD
 0   0   0 0   0   0.3
 0.1 0   0 0.1 0   0.3
 0.2 0   0 0.2 0   0.3
 0.3 0   0 0.3 0   0.3
 0   0.1 0 0   0.1 0.3
 0.1 0.1 0 0.1 0.1 0.3
 0.2 0.1 0 0.2 0.1 0.3
 0.3 0.1 0 0.3 0.1 0.3
 0   0.2 0 0   0.2 0.3
 0.1 0.2 0 0.1 0.2 0.3
 0.2 0.2 0 0.2 0.2 0.3
 0.3 0.2 0 0.3 0.3 0.3
 0   0.3 0 0   0.3 0.3
 0.1 0.3 0 0.1 0.3 0.3
 0.2 0.3 0 0.2 0.3 0.3
 0.3 0.3 0 0.3 0.3 0.3
/
 
ZCORN
 
 36*0
 36*0.1
 36*0.1
 36*0.2
 36*0.2
 36*0.3
/
 
PORO

 27*0.4
/

PERMX

 27*20
/

COPY
 PERMX PERMY /
 PERMX PERMZ /
/

SATNUM

 27*1
/
