SPECGRID
 3 3 3 1 F /
 
COORD
 0.000000 0.000000 0.000000 0.000000 0.000000 10.000000
 3.333333 0.000000 0.000000 3.333333 0.000000 10.000000
 6.666667 0.000000 0.000000 6.666667 0.000000 10.000000
 10.000000 0.000000 0.000000 10.000000 0.000000 10.000000
 0.000000 3.333333 0.000000 0.000000 3.333333 10.000000
 3.333333 3.333333 0.000000 3.333333 3.333333 10.000000
 6.666667 3.333333 0.000000 6.666667 3.333333 10.000000
 10.000000 3.333333 0.000000 10.000000 3.333333 10.000000
 0.000000 6.666667 0.000000 0.000000 6.666667 10.000000
 3.333333 6.666667 0.000000 3.333333 6.666667 10.000000
 6.666667 6.666667 0.000000 6.666667 6.666667 10.000000
 10.000000 6.666667 0.000000 10.000000 6.666667 10.000000
 0.000000 10.000000 0.000000 0.000000 10.000000 10.000000
 3.333333 10.000000 0.000000 3.333333 10.000000 10.000000
 6.666667 10.000000 0.000000 6.666667 10.000000 10.000000
 10.000000 10.000000 0.000000 10.000000 10.000000 10.000000
/
 
ZCORN
 36*0.000000
 36*3.333333
 36*3.333333
 36*6.666667
 36*6.666667
 36*10.000000
/
 
SATNUM
 9*1
 9*1
 9*1
 9*1
 9*2
 9*2
 9*2
 9*1
 9*1
/
 
PORO
 0.300000 0.300000 0.300000
 0.300000 0.300000 0.300000
 0.300000 0.300000 0.300000
 0.300000 0.300000 0.300000
 0.300000 0.300000 0.300000
 0.300000 0.300000 0.300000
 0.300000 0.300000 0.300000
 0.300000 0.300000 0.300000
 0.300000 0.300000 0.300000
 0.300000 0.300000 0.300000
 0.300000 0.300000 0.300000
 0.300000 0.300000 0.300000
 0.300000 0.300000 0.300000
 0.300000 0.300000 0.300000
 0.300000 0.300000 0.300000
 0.300000 0.300000 0.300000
 0.300000 0.300000 0.300000
 0.300000 0.300000 0.300000
 0.300000 0.300000 0.300000
 0.300000 0.300000 0.300000
 0.300000 0.300000 0.300000
 0.300000 0.300000 0.300000
 0.300000 0.300000 0.300000
 0.300000 0.300000 0.300000
 0.300000 0.300000 0.300000
 0.300000 0.300000 0.300000
 0.300000 0.300000 0.300000
/
 
PERMX
 1000.000000 1000.000000 1000.000000
 1000.000000 1000.000000 1000.000000
 1000.000000 1000.000000 1000.000000
 1000.000000 1000.000000 1000.000000
 1000.000000 1000.000000 1000.000000
 1000.000000 1000.000000 1000.000000
 1000.000000 1000.000000 1000.000000
 1000.000000 1000.000000 1000.000000
 1000.000000 1000.000000 1000.000000
 1000.000000 1000.000000 1000.000000
 1000.000000 1000.000000 1000.000000
 1000.000000 1000.000000 1000.000000
 1.000000 1.000000 1.000000
 1.000000 1.000000 1.000000
 1.000000 1.000000 1.000000
 1.000000 1.000000 1.000000
 1.000000 1.000000 1.000000
 1.000000 1.000000 1.000000
 1.000000 1.000000 1.000000
 1.000000 1.000000 1.000000
 1.000000 1.000000 1.000000
 1000.000000 1000.000000 1000.000000
 1000.000000 1000.000000 1000.000000
 1000.000000 1000.000000 1000.000000
 1000.000000 1000.000000 1000.000000
 1000.000000 1000.000000 1000.000000
 1000.000000 1000.000000 1000.000000
/
 
