SPECGRID
 20 20 20 1 F /
 
COORD
 0.000000 0.000000 0.000000 0.000000 0.000000 16.400000
 16.400000 0.000000 0.000000 16.400000 0.000000 16.400000
 32.799999 0.000000 0.000000 32.799999 0.000000 16.400000
 49.199997 0.000000 0.000000 49.199997 0.000000 16.400000
 65.599998 0.000000 0.000000 65.599998 0.000000 16.400000
 82.000000 0.000000 0.000000 82.000000 0.000000 16.400000
 98.399994 0.000000 0.000000 98.399994 0.000000 16.400000
 114.799995 0.000000 0.000000 114.799995 0.000000 16.400000
 131.199997 0.000000 0.000000 131.199997 0.000000 16.400000
 147.599991 0.000000 0.000000 147.599991 0.000000 16.400000
 164.000000 0.000000 0.000000 164.000000 0.000000 16.400000
 180.399994 0.000000 0.000000 180.399994 0.000000 16.400000
 196.799988 0.000000 0.000000 196.799988 0.000000 16.400000
 213.199997 0.000000 0.000000 213.199997 0.000000 16.400000
 229.599991 0.000000 0.000000 229.599991 0.000000 16.400000
 246.000000 0.000000 0.000000 246.000000 0.000000 16.400000
 262.399994 0.000000 0.000000 262.399994 0.000000 16.400000
 278.799988 0.000000 0.000000 278.799988 0.000000 16.400000
 295.199982 0.000000 0.000000 295.199982 0.000000 16.400000
 311.600006 0.000000 0.000000 311.600006 0.000000 16.400000
 328.000000 0.000000 0.000000 328.000000 0.000000 16.400000
 0.000000 16.400000 0.000000 0.000000 16.400000 16.400000
 16.400000 16.400000 0.000000 16.400000 16.400000 16.400000
 32.799999 16.400000 0.000000 32.799999 16.400000 16.400000
 49.199997 16.400000 0.000000 49.199997 16.400000 16.400000
 65.599998 16.400000 0.000000 65.599998 16.400000 16.400000
 82.000000 16.400000 0.000000 82.000000 16.400000 16.400000
 98.399994 16.400000 0.000000 98.399994 16.400000 16.400000
 114.799995 16.400000 0.000000 114.799995 16.400000 16.400000
 131.199997 16.400000 0.000000 131.199997 16.400000 16.400000
 147.599991 16.400000 0.000000 147.599991 16.400000 16.400000
 164.000000 16.400000 0.000000 164.000000 16.400000 16.400000
 180.399994 16.400000 0.000000 180.399994 16.400000 16.400000
 196.799988 16.400000 0.000000 196.799988 16.400000 16.400000
 213.199997 16.400000 0.000000 213.199997 16.400000 16.400000
 229.599991 16.400000 0.000000 229.599991 16.400000 16.400000
 246.000000 16.400000 0.000000 246.000000 16.400000 16.400000
 262.399994 16.400000 0.000000 262.399994 16.400000 16.400000
 278.799988 16.400000 0.000000 278.799988 16.400000 16.400000
 295.199982 16.400000 0.000000 295.199982 16.400000 16.400000
 311.600006 16.400000 0.000000 311.600006 16.400000 16.400000
 328.000000 16.400000 0.000000 328.000000 16.400000 16.400000
 0.000000 32.799999 0.000000 0.000000 32.799999 16.400000
 16.400000 32.799999 0.000000 16.400000 32.799999 16.400000
 32.799999 32.799999 0.000000 32.799999 32.799999 16.400000
 49.199997 32.799999 0.000000 49.199997 32.799999 16.400000
 65.599998 32.799999 0.000000 65.599998 32.799999 16.400000
 82.000000 32.799999 0.000000 82.000000 32.799999 16.400000
 98.399994 32.799999 0.000000 98.399994 32.799999 16.400000
 114.799995 32.799999 0.000000 114.799995 32.799999 16.400000
 131.199997 32.799999 0.000000 131.199997 32.799999 16.400000
 147.599991 32.799999 0.000000 147.599991 32.799999 16.400000
 164.000000 32.799999 0.000000 164.000000 32.799999 16.400000
 180.399994 32.799999 0.000000 180.399994 32.799999 16.400000
 196.799988 32.799999 0.000000 196.799988 32.799999 16.400000
 213.199997 32.799999 0.000000 213.199997 32.799999 16.400000
 229.599991 32.799999 0.000000 229.599991 32.799999 16.400000
 246.000000 32.799999 0.000000 246.000000 32.799999 16.400000
 262.399994 32.799999 0.000000 262.399994 32.799999 16.400000
 278.799988 32.799999 0.000000 278.799988 32.799999 16.400000
 295.199982 32.799999 0.000000 295.199982 32.799999 16.400000
 311.600006 32.799999 0.000000 311.600006 32.799999 16.400000
 328.000000 32.799999 0.000000 328.000000 32.799999 16.400000
 0.000000 49.199997 0.000000 0.000000 49.199997 16.400000
 16.400000 49.199997 0.000000 16.400000 49.199997 16.400000
 32.799999 49.199997 0.000000 32.799999 49.199997 16.400000
 49.199997 49.199997 0.000000 49.199997 49.199997 16.400000
 65.599998 49.199997 0.000000 65.599998 49.199997 16.400000
 82.000000 49.199997 0.000000 82.000000 49.199997 16.400000
 98.399994 49.199997 0.000000 98.399994 49.199997 16.400000
 114.799995 49.199997 0.000000 114.799995 49.199997 16.400000
 131.199997 49.199997 0.000000 131.199997 49.199997 16.400000
 147.599991 49.199997 0.000000 147.599991 49.199997 16.400000
 164.000000 49.199997 0.000000 164.000000 49.199997 16.400000
 180.399994 49.199997 0.000000 180.399994 49.199997 16.400000
 196.799988 49.199997 0.000000 196.799988 49.199997 16.400000
 213.199997 49.199997 0.000000 213.199997 49.199997 16.400000
 229.599991 49.199997 0.000000 229.599991 49.199997 16.400000
 246.000000 49.199997 0.000000 246.000000 49.199997 16.400000
 262.399994 49.199997 0.000000 262.399994 49.199997 16.400000
 278.799988 49.199997 0.000000 278.799988 49.199997 16.400000
 295.199982 49.199997 0.000000 295.199982 49.199997 16.400000
 311.600006 49.199997 0.000000 311.600006 49.199997 16.400000
 328.000000 49.199997 0.000000 328.000000 49.199997 16.400000
 0.000000 65.599998 0.000000 0.000000 65.599998 16.400000
 16.400000 65.599998 0.000000 16.400000 65.599998 16.400000
 32.799999 65.599998 0.000000 32.799999 65.599998 16.400000
 49.199997 65.599998 0.000000 49.199997 65.599998 16.400000
 65.599998 65.599998 0.000000 65.599998 65.599998 16.400000
 82.000000 65.599998 0.000000 82.000000 65.599998 16.400000
 98.399994 65.599998 0.000000 98.399994 65.599998 16.400000
 114.799995 65.599998 0.000000 114.799995 65.599998 16.400000
 131.199997 65.599998 0.000000 131.199997 65.599998 16.400000
 147.599991 65.599998 0.000000 147.599991 65.599998 16.400000
 164.000000 65.599998 0.000000 164.000000 65.599998 16.400000
 180.399994 65.599998 0.000000 180.399994 65.599998 16.400000
 196.799988 65.599998 0.000000 196.799988 65.599998 16.400000
 213.199997 65.599998 0.000000 213.199997 65.599998 16.400000
 229.599991 65.599998 0.000000 229.599991 65.599998 16.400000
 246.000000 65.599998 0.000000 246.000000 65.599998 16.400000
 262.399994 65.599998 0.000000 262.399994 65.599998 16.400000
 278.799988 65.599998 0.000000 278.799988 65.599998 16.400000
 295.199982 65.599998 0.000000 295.199982 65.599998 16.400000
 311.600006 65.599998 0.000000 311.600006 65.599998 16.400000
 328.000000 65.599998 0.000000 328.000000 65.599998 16.400000
 0.000000 82.000000 0.000000 0.000000 82.000000 16.400000
 16.400000 82.000000 0.000000 16.400000 82.000000 16.400000
 32.799999 82.000000 0.000000 32.799999 82.000000 16.400000
 49.199997 82.000000 0.000000 49.199997 82.000000 16.400000
 65.599998 82.000000 0.000000 65.599998 82.000000 16.400000
 82.000000 82.000000 0.000000 82.000000 82.000000 16.400000
 98.399994 82.000000 0.000000 98.399994 82.000000 16.400000
 114.799995 82.000000 0.000000 114.799995 82.000000 16.400000
 131.199997 82.000000 0.000000 131.199997 82.000000 16.400000
 147.599991 82.000000 0.000000 147.599991 82.000000 16.400000
 164.000000 82.000000 0.000000 164.000000 82.000000 16.400000
 180.399994 82.000000 0.000000 180.399994 82.000000 16.400000
 196.799988 82.000000 0.000000 196.799988 82.000000 16.400000
 213.199997 82.000000 0.000000 213.199997 82.000000 16.400000
 229.599991 82.000000 0.000000 229.599991 82.000000 16.400000
 246.000000 82.000000 0.000000 246.000000 82.000000 16.400000
 262.399994 82.000000 0.000000 262.399994 82.000000 16.400000
 278.799988 82.000000 0.000000 278.799988 82.000000 16.400000
 295.199982 82.000000 0.000000 295.199982 82.000000 16.400000
 311.600006 82.000000 0.000000 311.600006 82.000000 16.400000
 328.000000 82.000000 0.000000 328.000000 82.000000 16.400000
 0.000000 98.399994 0.000000 0.000000 98.399994 16.400000
 16.400000 98.399994 0.000000 16.400000 98.399994 16.400000
 32.799999 98.399994 0.000000 32.799999 98.399994 16.400000
 49.199997 98.399994 0.000000 49.199997 98.399994 16.400000
 65.599998 98.399994 0.000000 65.599998 98.399994 16.400000
 82.000000 98.399994 0.000000 82.000000 98.399994 16.400000
 98.399994 98.399994 0.000000 98.399994 98.399994 16.400000
 114.799995 98.399994 0.000000 114.799995 98.399994 16.400000
 131.199997 98.399994 0.000000 131.199997 98.399994 16.400000
 147.599991 98.399994 0.000000 147.599991 98.399994 16.400000
 164.000000 98.399994 0.000000 164.000000 98.399994 16.400000
 180.399994 98.399994 0.000000 180.399994 98.399994 16.400000
 196.799988 98.399994 0.000000 196.799988 98.399994 16.400000
 213.199997 98.399994 0.000000 213.199997 98.399994 16.400000
 229.599991 98.399994 0.000000 229.599991 98.399994 16.400000
 246.000000 98.399994 0.000000 246.000000 98.399994 16.400000
 262.399994 98.399994 0.000000 262.399994 98.399994 16.400000
 278.799988 98.399994 0.000000 278.799988 98.399994 16.400000
 295.199982 98.399994 0.000000 295.199982 98.399994 16.400000
 311.600006 98.399994 0.000000 311.600006 98.399994 16.400000
 328.000000 98.399994 0.000000 328.000000 98.399994 16.400000
 0.000000 114.799995 0.000000 0.000000 114.799995 16.400000
 16.400000 114.799995 0.000000 16.400000 114.799995 16.400000
 32.799999 114.799995 0.000000 32.799999 114.799995 16.400000
 49.199997 114.799995 0.000000 49.199997 114.799995 16.400000
 65.599998 114.799995 0.000000 65.599998 114.799995 16.400000
 82.000000 114.799995 0.000000 82.000000 114.799995 16.400000
 98.399994 114.799995 0.000000 98.399994 114.799995 16.400000
 114.799995 114.799995 0.000000 114.799995 114.799995 16.400000
 131.199997 114.799995 0.000000 131.199997 114.799995 16.400000
 147.599991 114.799995 0.000000 147.599991 114.799995 16.400000
 164.000000 114.799995 0.000000 164.000000 114.799995 16.400000
 180.399994 114.799995 0.000000 180.399994 114.799995 16.400000
 196.799988 114.799995 0.000000 196.799988 114.799995 16.400000
 213.199997 114.799995 0.000000 213.199997 114.799995 16.400000
 229.599991 114.799995 0.000000 229.599991 114.799995 16.400000
 246.000000 114.799995 0.000000 246.000000 114.799995 16.400000
 262.399994 114.799995 0.000000 262.399994 114.799995 16.400000
 278.799988 114.799995 0.000000 278.799988 114.799995 16.400000
 295.199982 114.799995 0.000000 295.199982 114.799995 16.400000
 311.600006 114.799995 0.000000 311.600006 114.799995 16.400000
 328.000000 114.799995 0.000000 328.000000 114.799995 16.400000
 0.000000 131.199997 0.000000 0.000000 131.199997 16.400000
 16.400000 131.199997 0.000000 16.400000 131.199997 16.400000
 32.799999 131.199997 0.000000 32.799999 131.199997 16.400000
 49.199997 131.199997 0.000000 49.199997 131.199997 16.400000
 65.599998 131.199997 0.000000 65.599998 131.199997 16.400000
 82.000000 131.199997 0.000000 82.000000 131.199997 16.400000
 98.399994 131.199997 0.000000 98.399994 131.199997 16.400000
 114.799995 131.199997 0.000000 114.799995 131.199997 16.400000
 131.199997 131.199997 0.000000 131.199997 131.199997 16.400000
 147.599991 131.199997 0.000000 147.599991 131.199997 16.400000
 164.000000 131.199997 0.000000 164.000000 131.199997 16.400000
 180.399994 131.199997 0.000000 180.399994 131.199997 16.400000
 196.799988 131.199997 0.000000 196.799988 131.199997 16.400000
 213.199997 131.199997 0.000000 213.199997 131.199997 16.400000
 229.599991 131.199997 0.000000 229.599991 131.199997 16.400000
 246.000000 131.199997 0.000000 246.000000 131.199997 16.400000
 262.399994 131.199997 0.000000 262.399994 131.199997 16.400000
 278.799988 131.199997 0.000000 278.799988 131.199997 16.400000
 295.199982 131.199997 0.000000 295.199982 131.199997 16.400000
 311.600006 131.199997 0.000000 311.600006 131.199997 16.400000
 328.000000 131.199997 0.000000 328.000000 131.199997 16.400000
 0.000000 147.599991 0.000000 0.000000 147.599991 16.400000
 16.400000 147.599991 0.000000 16.400000 147.599991 16.400000
 32.799999 147.599991 0.000000 32.799999 147.599991 16.400000
 49.199997 147.599991 0.000000 49.199997 147.599991 16.400000
 65.599998 147.599991 0.000000 65.599998 147.599991 16.400000
 82.000000 147.599991 0.000000 82.000000 147.599991 16.400000
 98.399994 147.599991 0.000000 98.399994 147.599991 16.400000
 114.799995 147.599991 0.000000 114.799995 147.599991 16.400000
 131.199997 147.599991 0.000000 131.199997 147.599991 16.400000
 147.599991 147.599991 0.000000 147.599991 147.599991 16.400000
 164.000000 147.599991 0.000000 164.000000 147.599991 16.400000
 180.399994 147.599991 0.000000 180.399994 147.599991 16.400000
 196.799988 147.599991 0.000000 196.799988 147.599991 16.400000
 213.199997 147.599991 0.000000 213.199997 147.599991 16.400000
 229.599991 147.599991 0.000000 229.599991 147.599991 16.400000
 246.000000 147.599991 0.000000 246.000000 147.599991 16.400000
 262.399994 147.599991 0.000000 262.399994 147.599991 16.400000
 278.799988 147.599991 0.000000 278.799988 147.599991 16.400000
 295.199982 147.599991 0.000000 295.199982 147.599991 16.400000
 311.600006 147.599991 0.000000 311.600006 147.599991 16.400000
 328.000000 147.599991 0.000000 328.000000 147.599991 16.400000
 0.000000 164.000000 0.000000 0.000000 164.000000 16.400000
 16.400000 164.000000 0.000000 16.400000 164.000000 16.400000
 32.799999 164.000000 0.000000 32.799999 164.000000 16.400000
 49.199997 164.000000 0.000000 49.199997 164.000000 16.400000
 65.599998 164.000000 0.000000 65.599998 164.000000 16.400000
 82.000000 164.000000 0.000000 82.000000 164.000000 16.400000
 98.399994 164.000000 0.000000 98.399994 164.000000 16.400000
 114.799995 164.000000 0.000000 114.799995 164.000000 16.400000
 131.199997 164.000000 0.000000 131.199997 164.000000 16.400000
 147.599991 164.000000 0.000000 147.599991 164.000000 16.400000
 164.000000 164.000000 0.000000 164.000000 164.000000 16.400000
 180.399994 164.000000 0.000000 180.399994 164.000000 16.400000
 196.799988 164.000000 0.000000 196.799988 164.000000 16.400000
 213.199997 164.000000 0.000000 213.199997 164.000000 16.400000
 229.599991 164.000000 0.000000 229.599991 164.000000 16.400000
 246.000000 164.000000 0.000000 246.000000 164.000000 16.400000
 262.399994 164.000000 0.000000 262.399994 164.000000 16.400000
 278.799988 164.000000 0.000000 278.799988 164.000000 16.400000
 295.199982 164.000000 0.000000 295.199982 164.000000 16.400000
 311.600006 164.000000 0.000000 311.600006 164.000000 16.400000
 328.000000 164.000000 0.000000 328.000000 164.000000 16.400000
 0.000000 180.399994 0.000000 0.000000 180.399994 16.400000
 16.400000 180.399994 0.000000 16.400000 180.399994 16.400000
 32.799999 180.399994 0.000000 32.799999 180.399994 16.400000
 49.199997 180.399994 0.000000 49.199997 180.399994 16.400000
 65.599998 180.399994 0.000000 65.599998 180.399994 16.400000
 82.000000 180.399994 0.000000 82.000000 180.399994 16.400000
 98.399994 180.399994 0.000000 98.399994 180.399994 16.400000
 114.799995 180.399994 0.000000 114.799995 180.399994 16.400000
 131.199997 180.399994 0.000000 131.199997 180.399994 16.400000
 147.599991 180.399994 0.000000 147.599991 180.399994 16.400000
 164.000000 180.399994 0.000000 164.000000 180.399994 16.400000
 180.399994 180.399994 0.000000 180.399994 180.399994 16.400000
 196.799988 180.399994 0.000000 196.799988 180.399994 16.400000
 213.199997 180.399994 0.000000 213.199997 180.399994 16.400000
 229.599991 180.399994 0.000000 229.599991 180.399994 16.400000
 246.000000 180.399994 0.000000 246.000000 180.399994 16.400000
 262.399994 180.399994 0.000000 262.399994 180.399994 16.400000
 278.799988 180.399994 0.000000 278.799988 180.399994 16.400000
 295.199982 180.399994 0.000000 295.199982 180.399994 16.400000
 311.600006 180.399994 0.000000 311.600006 180.399994 16.400000
 328.000000 180.399994 0.000000 328.000000 180.399994 16.400000
 0.000000 196.799988 0.000000 0.000000 196.799988 16.400000
 16.400000 196.799988 0.000000 16.400000 196.799988 16.400000
 32.799999 196.799988 0.000000 32.799999 196.799988 16.400000
 49.199997 196.799988 0.000000 49.199997 196.799988 16.400000
 65.599998 196.799988 0.000000 65.599998 196.799988 16.400000
 82.000000 196.799988 0.000000 82.000000 196.799988 16.400000
 98.399994 196.799988 0.000000 98.399994 196.799988 16.400000
 114.799995 196.799988 0.000000 114.799995 196.799988 16.400000
 131.199997 196.799988 0.000000 131.199997 196.799988 16.400000
 147.599991 196.799988 0.000000 147.599991 196.799988 16.400000
 164.000000 196.799988 0.000000 164.000000 196.799988 16.400000
 180.399994 196.799988 0.000000 180.399994 196.799988 16.400000
 196.799988 196.799988 0.000000 196.799988 196.799988 16.400000
 213.199997 196.799988 0.000000 213.199997 196.799988 16.400000
 229.599991 196.799988 0.000000 229.599991 196.799988 16.400000
 246.000000 196.799988 0.000000 246.000000 196.799988 16.400000
 262.399994 196.799988 0.000000 262.399994 196.799988 16.400000
 278.799988 196.799988 0.000000 278.799988 196.799988 16.400000
 295.199982 196.799988 0.000000 295.199982 196.799988 16.400000
 311.600006 196.799988 0.000000 311.600006 196.799988 16.400000
 328.000000 196.799988 0.000000 328.000000 196.799988 16.400000
 0.000000 213.199997 0.000000 0.000000 213.199997 16.400000
 16.400000 213.199997 0.000000 16.400000 213.199997 16.400000
 32.799999 213.199997 0.000000 32.799999 213.199997 16.400000
 49.199997 213.199997 0.000000 49.199997 213.199997 16.400000
 65.599998 213.199997 0.000000 65.599998 213.199997 16.400000
 82.000000 213.199997 0.000000 82.000000 213.199997 16.400000
 98.399994 213.199997 0.000000 98.399994 213.199997 16.400000
 114.799995 213.199997 0.000000 114.799995 213.199997 16.400000
 131.199997 213.199997 0.000000 131.199997 213.199997 16.400000
 147.599991 213.199997 0.000000 147.599991 213.199997 16.400000
 164.000000 213.199997 0.000000 164.000000 213.199997 16.400000
 180.399994 213.199997 0.000000 180.399994 213.199997 16.400000
 196.799988 213.199997 0.000000 196.799988 213.199997 16.400000
 213.199997 213.199997 0.000000 213.199997 213.199997 16.400000
 229.599991 213.199997 0.000000 229.599991 213.199997 16.400000
 246.000000 213.199997 0.000000 246.000000 213.199997 16.400000
 262.399994 213.199997 0.000000 262.399994 213.199997 16.400000
 278.799988 213.199997 0.000000 278.799988 213.199997 16.400000
 295.199982 213.199997 0.000000 295.199982 213.199997 16.400000
 311.600006 213.199997 0.000000 311.600006 213.199997 16.400000
 328.000000 213.199997 0.000000 328.000000 213.199997 16.400000
 0.000000 229.599991 0.000000 0.000000 229.599991 16.400000
 16.400000 229.599991 0.000000 16.400000 229.599991 16.400000
 32.799999 229.599991 0.000000 32.799999 229.599991 16.400000
 49.199997 229.599991 0.000000 49.199997 229.599991 16.400000
 65.599998 229.599991 0.000000 65.599998 229.599991 16.400000
 82.000000 229.599991 0.000000 82.000000 229.599991 16.400000
 98.399994 229.599991 0.000000 98.399994 229.599991 16.400000
 114.799995 229.599991 0.000000 114.799995 229.599991 16.400000
 131.199997 229.599991 0.000000 131.199997 229.599991 16.400000
 147.599991 229.599991 0.000000 147.599991 229.599991 16.400000
 164.000000 229.599991 0.000000 164.000000 229.599991 16.400000
 180.399994 229.599991 0.000000 180.399994 229.599991 16.400000
 196.799988 229.599991 0.000000 196.799988 229.599991 16.400000
 213.199997 229.599991 0.000000 213.199997 229.599991 16.400000
 229.599991 229.599991 0.000000 229.599991 229.599991 16.400000
 246.000000 229.599991 0.000000 246.000000 229.599991 16.400000
 262.399994 229.599991 0.000000 262.399994 229.599991 16.400000
 278.799988 229.599991 0.000000 278.799988 229.599991 16.400000
 295.199982 229.599991 0.000000 295.199982 229.599991 16.400000
 311.600006 229.599991 0.000000 311.600006 229.599991 16.400000
 328.000000 229.599991 0.000000 328.000000 229.599991 16.400000
 0.000000 246.000000 0.000000 0.000000 246.000000 16.400000
 16.400000 246.000000 0.000000 16.400000 246.000000 16.400000
 32.799999 246.000000 0.000000 32.799999 246.000000 16.400000
 49.199997 246.000000 0.000000 49.199997 246.000000 16.400000
 65.599998 246.000000 0.000000 65.599998 246.000000 16.400000
 82.000000 246.000000 0.000000 82.000000 246.000000 16.400000
 98.399994 246.000000 0.000000 98.399994 246.000000 16.400000
 114.799995 246.000000 0.000000 114.799995 246.000000 16.400000
 131.199997 246.000000 0.000000 131.199997 246.000000 16.400000
 147.599991 246.000000 0.000000 147.599991 246.000000 16.400000
 164.000000 246.000000 0.000000 164.000000 246.000000 16.400000
 180.399994 246.000000 0.000000 180.399994 246.000000 16.400000
 196.799988 246.000000 0.000000 196.799988 246.000000 16.400000
 213.199997 246.000000 0.000000 213.199997 246.000000 16.400000
 229.599991 246.000000 0.000000 229.599991 246.000000 16.400000
 246.000000 246.000000 0.000000 246.000000 246.000000 16.400000
 262.399994 246.000000 0.000000 262.399994 246.000000 16.400000
 278.799988 246.000000 0.000000 278.799988 246.000000 16.400000
 295.199982 246.000000 0.000000 295.199982 246.000000 16.400000
 311.600006 246.000000 0.000000 311.600006 246.000000 16.400000
 328.000000 246.000000 0.000000 328.000000 246.000000 16.400000
 0.000000 262.399994 0.000000 0.000000 262.399994 16.400000
 16.400000 262.399994 0.000000 16.400000 262.399994 16.400000
 32.799999 262.399994 0.000000 32.799999 262.399994 16.400000
 49.199997 262.399994 0.000000 49.199997 262.399994 16.400000
 65.599998 262.399994 0.000000 65.599998 262.399994 16.400000
 82.000000 262.399994 0.000000 82.000000 262.399994 16.400000
 98.399994 262.399994 0.000000 98.399994 262.399994 16.400000
 114.799995 262.399994 0.000000 114.799995 262.399994 16.400000
 131.199997 262.399994 0.000000 131.199997 262.399994 16.400000
 147.599991 262.399994 0.000000 147.599991 262.399994 16.400000
 164.000000 262.399994 0.000000 164.000000 262.399994 16.400000
 180.399994 262.399994 0.000000 180.399994 262.399994 16.400000
 196.799988 262.399994 0.000000 196.799988 262.399994 16.400000
 213.199997 262.399994 0.000000 213.199997 262.399994 16.400000
 229.599991 262.399994 0.000000 229.599991 262.399994 16.400000
 246.000000 262.399994 0.000000 246.000000 262.399994 16.400000
 262.399994 262.399994 0.000000 262.399994 262.399994 16.400000
 278.799988 262.399994 0.000000 278.799988 262.399994 16.400000
 295.199982 262.399994 0.000000 295.199982 262.399994 16.400000
 311.600006 262.399994 0.000000 311.600006 262.399994 16.400000
 328.000000 262.399994 0.000000 328.000000 262.399994 16.400000
 0.000000 278.799988 0.000000 0.000000 278.799988 16.400000
 16.400000 278.799988 0.000000 16.400000 278.799988 16.400000
 32.799999 278.799988 0.000000 32.799999 278.799988 16.400000
 49.199997 278.799988 0.000000 49.199997 278.799988 16.400000
 65.599998 278.799988 0.000000 65.599998 278.799988 16.400000
 82.000000 278.799988 0.000000 82.000000 278.799988 16.400000
 98.399994 278.799988 0.000000 98.399994 278.799988 16.400000
 114.799995 278.799988 0.000000 114.799995 278.799988 16.400000
 131.199997 278.799988 0.000000 131.199997 278.799988 16.400000
 147.599991 278.799988 0.000000 147.599991 278.799988 16.400000
 164.000000 278.799988 0.000000 164.000000 278.799988 16.400000
 180.399994 278.799988 0.000000 180.399994 278.799988 16.400000
 196.799988 278.799988 0.000000 196.799988 278.799988 16.400000
 213.199997 278.799988 0.000000 213.199997 278.799988 16.400000
 229.599991 278.799988 0.000000 229.599991 278.799988 16.400000
 246.000000 278.799988 0.000000 246.000000 278.799988 16.400000
 262.399994 278.799988 0.000000 262.399994 278.799988 16.400000
 278.799988 278.799988 0.000000 278.799988 278.799988 16.400000
 295.199982 278.799988 0.000000 295.199982 278.799988 16.400000
 311.600006 278.799988 0.000000 311.600006 278.799988 16.400000
 328.000000 278.799988 0.000000 328.000000 278.799988 16.400000
 0.000000 295.199982 0.000000 0.000000 295.199982 16.400000
 16.400000 295.199982 0.000000 16.400000 295.199982 16.400000
 32.799999 295.199982 0.000000 32.799999 295.199982 16.400000
 49.199997 295.199982 0.000000 49.199997 295.199982 16.400000
 65.599998 295.199982 0.000000 65.599998 295.199982 16.400000
 82.000000 295.199982 0.000000 82.000000 295.199982 16.400000
 98.399994 295.199982 0.000000 98.399994 295.199982 16.400000
 114.799995 295.199982 0.000000 114.799995 295.199982 16.400000
 131.199997 295.199982 0.000000 131.199997 295.199982 16.400000
 147.599991 295.199982 0.000000 147.599991 295.199982 16.400000
 164.000000 295.199982 0.000000 164.000000 295.199982 16.400000
 180.399994 295.199982 0.000000 180.399994 295.199982 16.400000
 196.799988 295.199982 0.000000 196.799988 295.199982 16.400000
 213.199997 295.199982 0.000000 213.199997 295.199982 16.400000
 229.599991 295.199982 0.000000 229.599991 295.199982 16.400000
 246.000000 295.199982 0.000000 246.000000 295.199982 16.400000
 262.399994 295.199982 0.000000 262.399994 295.199982 16.400000
 278.799988 295.199982 0.000000 278.799988 295.199982 16.400000
 295.199982 295.199982 0.000000 295.199982 295.199982 16.400000
 311.600006 295.199982 0.000000 311.600006 295.199982 16.400000
 328.000000 295.199982 0.000000 328.000000 295.199982 16.400000
 0.000000 311.600006 0.000000 0.000000 311.600006 16.400000
 16.400000 311.600006 0.000000 16.400000 311.600006 16.400000
 32.799999 311.600006 0.000000 32.799999 311.600006 16.400000
 49.199997 311.600006 0.000000 49.199997 311.600006 16.400000
 65.599998 311.600006 0.000000 65.599998 311.600006 16.400000
 82.000000 311.600006 0.000000 82.000000 311.600006 16.400000
 98.399994 311.600006 0.000000 98.399994 311.600006 16.400000
 114.799995 311.600006 0.000000 114.799995 311.600006 16.400000
 131.199997 311.600006 0.000000 131.199997 311.600006 16.400000
 147.599991 311.600006 0.000000 147.599991 311.600006 16.400000
 164.000000 311.600006 0.000000 164.000000 311.600006 16.400000
 180.399994 311.600006 0.000000 180.399994 311.600006 16.400000
 196.799988 311.600006 0.000000 196.799988 311.600006 16.400000
 213.199997 311.600006 0.000000 213.199997 311.600006 16.400000
 229.599991 311.600006 0.000000 229.599991 311.600006 16.400000
 246.000000 311.600006 0.000000 246.000000 311.600006 16.400000
 262.399994 311.600006 0.000000 262.399994 311.600006 16.400000
 278.799988 311.600006 0.000000 278.799988 311.600006 16.400000
 295.199982 311.600006 0.000000 295.199982 311.600006 16.400000
 311.600006 311.600006 0.000000 311.600006 311.600006 16.400000
 328.000000 311.600006 0.000000 328.000000 311.600006 16.400000
 0.000000 328.000000 0.000000 0.000000 328.000000 16.400000
 16.400000 328.000000 0.000000 16.400000 328.000000 16.400000
 32.799999 328.000000 0.000000 32.799999 328.000000 16.400000
 49.199997 328.000000 0.000000 49.199997 328.000000 16.400000
 65.599998 328.000000 0.000000 65.599998 328.000000 16.400000
 82.000000 328.000000 0.000000 82.000000 328.000000 16.400000
 98.399994 328.000000 0.000000 98.399994 328.000000 16.400000
 114.799995 328.000000 0.000000 114.799995 328.000000 16.400000
 131.199997 328.000000 0.000000 131.199997 328.000000 16.400000
 147.599991 328.000000 0.000000 147.599991 328.000000 16.400000
 164.000000 328.000000 0.000000 164.000000 328.000000 16.400000
 180.399994 328.000000 0.000000 180.399994 328.000000 16.400000
 196.799988 328.000000 0.000000 196.799988 328.000000 16.400000
 213.199997 328.000000 0.000000 213.199997 328.000000 16.400000
 229.599991 328.000000 0.000000 229.599991 328.000000 16.400000
 246.000000 328.000000 0.000000 246.000000 328.000000 16.400000
 262.399994 328.000000 0.000000 262.399994 328.000000 16.400000
 278.799988 328.000000 0.000000 278.799988 328.000000 16.400000
 295.199982 328.000000 0.000000 295.199982 328.000000 16.400000
 311.600006 328.000000 0.000000 311.600006 328.000000 16.400000
 328.000000 328.000000 0.000000 328.000000 328.000000 16.400000
/
 
ZCORN
 1600*0.000000
 1600*0.820000
 1600*0.820000
 1600*1.640000
 1600*1.640000
 1600*2.460000
 1600*2.460000
 1600*3.280000
 1600*3.280000
 1600*4.100000
 1600*4.100000
 1600*4.920000
 1600*4.920000
 1600*5.740000
 1600*5.740000
 1600*6.560000
 1600*6.560000
 1600*7.380000
 1600*7.380000
 1600*8.200000
 1600*8.200000
 1600*9.020000
 1600*9.020000
 1600*9.840000
 1600*9.840000
 1600*10.660000
 1600*10.660000
 1600*11.480000
 1600*11.480000
 1600*12.300000
 1600*12.300000
 1600*13.120000
 1600*13.120000
 1600*13.940000
 1600*13.940000
 1600*14.760000
 1600*14.760000
 1600*15.580000
 1600*15.580000
 1600*16.400000
/
 
SATNUM
 400*1
 400*1
 400*2
 400*2
 400*1
 400*1
 400*2
 400*2
 400*1
 400*1
 400*2
 400*2
 400*1
 400*1
 400*2
 400*2
 400*1
 400*1
 400*2
 400*2
/
 
PORO
 0.300000 0.300000 0.300000 0.300000 0.300000 0.300000 0.300000 0.300000 0.300000 0.300000 0.300000 0.300000 0.300000 0.300000 0.300000 0.300000 0.300000 0.300000 0.300000 0.300000
 0.300000 0.300000 0.300000 0.300000 0.300000 0.300000 0.300000 0.300000 0.300000 0.300000 0.300000 0.300000 0.300000 0.300000 0.300000 0.300000 0.300000 0.300000 0.300000 0.300000
 0.300000 0.300000 0.300000 0.300000 0.300000 0.300000 0.300000 0.300000 0.300000 0.300000 0.300000 0.300000 0.300000 0.300000 0.300000 0.300000 0.300000 0.300000 0.300000 0.300000
 0.300000 0.300000 0.300000 0.300000 0.300000 0.300000 0.300000 0.300000 0.300000 0.300000 0.300000 0.300000 0.300000 0.300000 0.300000 0.300000 0.300000 0.300000 0.300000 0.300000
 0.300000 0.300000 0.300000 0.300000 0.300000 0.300000 0.300000 0.300000 0.300000 0.300000 0.300000 0.300000 0.300000 0.300000 0.300000 0.300000 0.300000 0.300000 0.300000 0.300000
 0.300000 0.300000 0.300000 0.300000 0.300000 0.300000 0.300000 0.300000 0.300000 0.300000 0.300000 0.300000 0.300000 0.300000 0.300000 0.300000 0.300000 0.300000 0.300000 0.300000
 0.300000 0.300000 0.300000 0.300000 0.300000 0.300000 0.300000 0.300000 0.300000 0.300000 0.300000 0.300000 0.300000 0.300000 0.300000 0.300000 0.300000 0.300000 0.300000 0.300000
 0.300000 0.300000 0.300000 0.300000 0.300000 0.300000 0.300000 0.300000 0.300000 0.300000 0.300000 0.300000 0.300000 0.300000 0.300000 0.300000 0.300000 0.300000 0.300000 0.300000
 0.300000 0.300000 0.300000 0.300000 0.300000 0.300000 0.300000 0.300000 0.300000 0.300000 0.300000 0.300000 0.300000 0.300000 0.300000 0.300000 0.300000 0.300000 0.300000 0.300000